                         Program Version 4.1.1  - RELEASE  -
|  1> ! UHF MP2 6-311G** Opt Freq NoFrozenCore TightOpt TightSCF
|  2>
|  3> *xyz 0 2
|  4> C        0.000000000      0.000000000      0.000000000
|  5> H        1.078832047      0.000000000      0.000000000
|  6> H       -0.539416024      0.934295959      0.000000000
|  7> H       -0.539416024     -0.934295959      0.000000000
|  8> *
|  9> %pal
| 10>  nprocs 4
| 11> end
| 12>
| 13>                          ****END OF INPUT****
 Total Charge           Charge          ....    0
 Multiplicity           Mult            ....    2
 Number of Electrons    NEL             ....    9
MP2 TOTAL ENERGY:      -39.725672392 Eh
FINAL SINGLE POINT ENERGY       -39.725672392064
                    ***********************HURRAY********************

CARTESIAN COORDINATES (ANGSTROEM)
---------------------------------
  C     -0.000000   -0.000000    0.000000
  H      1.078830    0.000000   -0.000000
  H     -0.539415    0.934294   -0.000000
  H     -0.539415   -0.934294   -0.000000

 Multiplicity           Mult            ....    2
 Number of Electrons    NEL             ....    9
 Basis Dimension        Dim             ....   36

ORBITAL ENERGIES
----------------
                 SPIN UP ORBITALS
  NO   OCC          E(Eh)            E(eV)
   0   1.0000     -11.231513      -305.6250
   1   1.0000      -0.946563       -25.7573
   2   1.0000      -0.579190       -15.7606
   3   1.0000      -0.579190       -15.7606
   4   1.0000      -0.384433       -10.4610
   5   0.0000       0.162821         4.4306
   6   0.0000       0.229094         6.2340
   7   0.0000       0.229094         6.2340
   8   0.0000       0.449488        12.2312
   9   0.0000       0.449488        12.2312

                 SPIN DOWN ORBITALS
  NO   OCC          E(Eh)            E(eV)
   0   1.0000     -11.207717      -304.9775
   1   1.0000      -0.854252       -23.2454
   2   1.0000      -0.564233       -15.3536
   3   1.0000      -0.564233       -15.3536
   4   0.0000       0.135710         3.6929
   5   0.0000       0.174972         4.7612
   6   0.0000       0.234231         6.3737
   7   0.0000       0.234231         6.3737
   8   0.0000       0.453449        12.3390

MULLIKEN ATOMIC CHARGES AND SPIN DENSITIES
------------------------------------------
   0 C :   -0.366206    1.181800
   1 H :    0.122069   -0.060600
   2 H :    0.122069   -0.060600
   3 H :    0.122069   -0.060600
Sum of atomic charges       :    0.0000000

LOEWDIN ATOMIC CHARGES AND SPIN DENSITIES
-----------------------------------------
   0 C :    0.020732    1.010364
   1 H :   -0.006911   -0.003455
   2 H :   -0.006911   -0.003455
   3 H :   -0.006911   -0.003455

  Mayer bond orders larger than 0.1
B(  0-C ,  1-H ) :   0.9438 B(  0-C ,  2-H ) :   0.9438 B(  0-C ,  3-H ) :   0.9438

MP2 TOTAL ENERGY:      -39.725672657 Eh
FINAL SINGLE POINT ENERGY       -39.725672656672

DIPOLE MOMENT
-------------
                                X             Y             Z
Electronic contribution:     -0.00000      -0.00000       0.00000
Nuclear contribution   :      0.00000       0.00000      -0.00000
                        -----------------------------------------
Total Dipole Moment    :     -0.00000       0.00000      -0.00000
                        -----------------------------------------
Magnitude (a.u.)       :      0.00000
Magnitude (Debye)      :      0.00000

VIBRATIONAL FREQUENCIES
-----------------------

Scaling factor for frequencies =  1.000000000  (already applied!)

   0:         0.00 cm**-1
   1:         0.00 cm**-1
   2:         0.00 cm**-1
   3:         0.00 cm**-1
   4:         0.00 cm**-1
   5:         0.00 cm**-1
   6:       423.01 cm**-1
   7:      1446.44 cm**-1
   8:      1446.45 cm**-1
   9:      3178.97 cm**-1
  10:      3371.80 cm**-1
  11:      3371.81 cm**-1

IR SPECTRUM
-----------

 Mode    freq (cm**-1)   T**2         TX         TY         TZ
-------------------------------------------------------------------
   6:       423.01   82.604306  (  0.000000   0.000000   9.088691)
   7:      1446.44    3.031866  (  1.741225  -0.000002  -0.000000)
   8:      1446.45    3.020919  ( -0.000002  -1.738079  -0.000000)
   9:      3178.97    0.000000  ( -0.000429   0.000000  -0.000000)
  10:      3371.80    4.116742  (  0.000005   2.028976  -0.000000)
  11:      3371.81    4.120669  (  2.029943  -0.000005  -0.000000)

--------------------------
THERMOCHEMISTRY AT 298.15K
--------------------------

Temperature         ... 298.15 K
Pressure            ... 1.00 atm
Total Mass          ... 15.03 AMU

Throughout the following assumptions are being made:
  (1) The electronic state is orbitally nondegenerate
      but the spin degeneracy is treated
  (2) There are no thermally accessible electronically excited states
  (3) Hindered rotations indicated by low frequency modes are not
      treated as such but are treated as vibrations and this may
      cause some error
  (4) All equations used are the standard statistical mechanics
      equations for an ideal gas
  (5) All vibrations are strictly harmonic

freq.     423.01  E(vib)   ...       0.18
freq.    1446.44  E(vib)   ...       0.00
freq.    1446.45  E(vib)   ...       0.00
freq.    3178.97  E(vib)   ...       0.00
freq.    3371.80  E(vib)   ...       0.00
freq.    3371.81  E(vib)   ...       0.00

------------
INNER ENERGY
------------

The inner energy is: U= E(el) + E(ZPE) + E(vib) + E(rot) + E(trans)
    E(el)   - is the total energy from the electronic structure calculation
              = E(kin-el) + E(nuc-el) + E(el-el) + E(nuc-nuc)
    E(ZPE)  - the the zero temperature vibrational energy from the frequency calculation
    E(vib)  - the the finite temperature correction to E(ZPE) due to population
              of excited vibrational states
    E(rot)  - is the rotational thermal energy
    E(trans)- is the translational thermal energy

Summary of contributions to the inner energy U:
Electronic energy                ...    -39.72567266 Eh
Zero point energy                ...      0.03015947 Eh      18.93 kcal/mol
Thermal vibrational correction   ...      0.00029994 Eh       0.19 kcal/mol
Thermal rotational correction    ...      0.00141627 Eh       0.89 kcal/mol
Thermal translational correction ...      0.00141627 Eh       0.89 kcal/mol
-----------------------------------------------------------------------
Total thermal energy                    -39.69238070 Eh

Summary of corrections to the electronic energy:
(perhaps to be used in another calculation)
Total thermal correction                  0.00313248 Eh       1.97 kcal/mol
Non-thermal (ZPE) correction              0.03015947 Eh      18.93 kcal/mol
-----------------------------------------------------------------------
Total correction                          0.03329195 Eh      20.89 kcal/mol

--------
ENTHALPY
--------

The enthalpy is H = U + kB*T
                kB is Boltzmann's constant
Total free energy                 ...    -39.69238070 Eh
Thermal Enthalpy correction       ...      0.00094421 Eh       0.59 kcal/mol
-----------------------------------------------------------------------
Total Enthalpy                    ...    -39.69143649 Eh

Note: Rotational entropy computed according to Herzberg
Infrared and Raman Spectra, Chapter V,1, Van Nostrand Reinhold, 1945
Point Group:  D3h, Symmetry Number:   6
Rotational constants in cm-1:     9.579420     9.579420     4.789710

Vibrational entropy computed according to the QRRHO of S. Grimme
Chem.Eur.J. 2012 18 9955

-------
ENTROPY
-------

The entropy contributions are T*S = T*(S(el)+S(vib)+S(rot)+S(trans))
     S(el)   - electronic entropy
     S(vib)  - vibrational entropy
     S(rot)  - rotational entropy
     S(trans)- translational entropy
The entropies will be listed as mutliplied by the temperature to get
units of energy

Electronic entropy                ...      0.00065446 Eh      0.41 kcal/mol
Vibrational entropy               ...      0.00043384 Eh      0.27 kcal/mol
Rotational entropy                ...      0.00494606 Eh      3.10 kcal/mol
Translational entropy             ...      0.01618771 Eh     10.16 kcal/mol
-----------------------------------------------------------------------
Final entropy term                ...      0.02222206 Eh     13.94 kcal/mol

-------------------
GIBBS FREE ENTHALPY
-------------------

The Gibbs free enthalpy is G = H - T*S

Total enthalpy                    ...    -39.69143649 Eh
Total entropy correction          ...     -0.02222206 Eh    -13.94 kcal/mol
-----------------------------------------------------------------------
Final Gibbs free enthalpy         ...    -39.71365855 Eh

For completeness - the Gibbs free enthalpy minus the electronic energy
G-E(el)                           ...      0.01201410 Eh      7.54 kcal/mol

                             ****ORCA TERMINATED NORMALLY****
TOTAL RUN TIME: 0 days 0 hours 0 minutes 59 seconds 259 msec
