                         Program Version 4.1.1  - RELEASE  -
|  1> ! UHF MP2 6-311G** Opt Freq NoFrozenCore TightOpt TightSCF
|  2>
|  3> *xyz 0 1
|  4> Cl       0.000000000      0.000000000      0.035676156
|  5> H        0.000000000      0.000000000     -1.237867844
|  6> *
|  7> %pal
|  8>  nprocs 4
|  9> end
| 10>
| 11>                          ****END OF INPUT****
 Total Charge           Charge          ....    0
 Multiplicity           Mult            ....    1
 Number of Electrons    NEL             ....   18
MP2 TOTAL ENERGY:     -460.292971237 Eh
FINAL SINGLE POINT ENERGY      -460.292971237475
                    ***********************HURRAY********************

CARTESIAN COORDINATES (ANGSTROEM)
---------------------------------
  Cl     0.000000    0.000000    0.035677
  H      0.000000    0.000000   -1.237869

 Multiplicity           Mult            ....    1
 Number of Electrons    NEL             ....   18
 Basis Dimension        Dim             ....   32

ORBITAL ENERGIES
----------------
                 SPIN UP ORBITALS
  NO   OCC          E(Eh)            E(eV)
   0   1.0000    -104.850629     -2853.1307
   1   1.0000     -10.577338      -287.8240
   2   1.0000      -8.045870      -218.9393
   3   1.0000      -8.042613      -218.8506
   4   1.0000      -8.042613      -218.8506
   5   1.0000      -1.121362       -30.5138
   6   1.0000      -0.629296       -17.1240
   7   1.0000      -0.478311       -13.0155
   8   1.0000      -0.478311       -13.0155
   9   0.0000       0.123132         3.3506
  10   0.0000       0.314858         8.5677
  11   0.0000       0.417301        11.3553
  12   0.0000       0.417301        11.3553
  13   0.0000       0.458619        12.4797

                 SPIN DOWN ORBITALS
  NO   OCC          E(Eh)            E(eV)
   0   1.0000    -104.850629     -2853.1307
   1   1.0000     -10.577338      -287.8240
   2   1.0000      -8.045870      -218.9393
   3   1.0000      -8.042613      -218.8506
   4   1.0000      -8.042613      -218.8506
   5   1.0000      -1.121362       -30.5138
   6   1.0000      -0.629296       -17.1240
   7   1.0000      -0.478311       -13.0155
   8   1.0000      -0.478311       -13.0155
   9   0.0000       0.123132         3.3506
  10   0.0000       0.314858         8.5677
  11   0.0000       0.417301        11.3553
  12   0.0000       0.417301        11.3553
  13   0.0000       0.458619        12.4797

MULLIKEN ATOMIC CHARGES AND SPIN DENSITIES
------------------------------------------
   0 Cl:   -0.159556   -0.000000
   1 H :    0.159556    0.000000
Sum of atomic charges       :   -0.0000000

LOEWDIN ATOMIC CHARGES AND SPIN DENSITIES
-----------------------------------------
   0 Cl:    0.037617   -0.000000
   1 H :   -0.037617    0.000000

  Mayer bond orders larger than 0.1
B(  0-Cl,  1-H ) :   0.9511

MP2 TOTAL ENERGY:     -460.292970944 Eh
FINAL SINGLE POINT ENERGY      -460.292970943920

DIPOLE MOMENT
-------------
                                X             Y             Z
Electronic contribution:     -0.00000      -0.00000       0.66254
Nuclear contribution   :      0.00000       0.00000      -1.20904
                        -----------------------------------------
Total Dipole Moment    :     -0.00000      -0.00000      -0.54649
                        -----------------------------------------
Magnitude (a.u.)       :      0.54649
Magnitude (Debye)      :      1.38908

VIBRATIONAL FREQUENCIES
-----------------------

Scaling factor for frequencies =  1.000000000  (already applied!)

   0:         0.00 cm**-1
   1:         0.00 cm**-1
   2:         0.00 cm**-1
   3:         0.00 cm**-1
   4:         0.00 cm**-1
   5:      3083.91 cm**-1

IR SPECTRUM
-----------

 Mode    freq (cm**-1)   T**2         TX         TY         TZ
-------------------------------------------------------------------
   5:      3083.91   35.239257  (  0.000000   0.000000  -5.936266)

--------------------------
THERMOCHEMISTRY AT 298.15K
--------------------------

Temperature         ... 298.15 K
Pressure            ... 1.00 atm
Total Mass          ... 36.46 AMU
The molecule is recognized as being linear

Throughout the following assumptions are being made:
  (1) The electronic state is orbitally nondegenerate
  (2) There are no thermally accessible electronically excited states
  (3) Hindered rotations indicated by low frequency modes are not
      treated as such but are treated as vibrations and this may
      cause some error
  (4) All equations used are the standard statistical mechanics
      equations for an ideal gas
  (5) All vibrations are strictly harmonic

freq.    3083.91  E(vib)   ...       0.00

------------
INNER ENERGY
------------

The inner energy is: U= E(el) + E(ZPE) + E(vib) + E(rot) + E(trans)
    E(el)   - is the total energy from the electronic structure calculation
              = E(kin-el) + E(nuc-el) + E(el-el) + E(nuc-nuc)
    E(ZPE)  - the the zero temperature vibrational energy from the frequency calculation
    E(vib)  - the the finite temperature correction to E(ZPE) due to population
              of excited vibrational states
    E(rot)  - is the rotational thermal energy
    E(trans)- is the translational thermal energy

Summary of contributions to the inner energy U:
Electronic energy                ...   -460.29297094 Eh
Zero point energy                ...      0.00702566 Eh       4.41 kcal/mol
Thermal vibrational correction   ...      0.00000000 Eh       0.00 kcal/mol
Thermal rotational correction    ...      0.00094418 Eh       0.59 kcal/mol
Thermal translational correction ...      0.00141627 Eh       0.89 kcal/mol
-----------------------------------------------------------------------
Total thermal energy                   -460.28358483 Eh

Summary of corrections to the electronic energy:
(perhaps to be used in another calculation)
Total thermal correction                  0.00236046 Eh       1.48 kcal/mol
Non-thermal (ZPE) correction              0.00702566 Eh       4.41 kcal/mol
-----------------------------------------------------------------------
Total correction                          0.00938612 Eh       5.89 kcal/mol

--------
ENTHALPY
--------

The enthalpy is H = U + kB*T
                kB is Boltzmann's constant
Total free energy                 ...   -460.28358483 Eh
Thermal Enthalpy correction       ...      0.00094421 Eh       0.59 kcal/mol
-----------------------------------------------------------------------
Total Enthalpy                    ...   -460.28264062 Eh

Note: Rotational entropy computed according to Herzberg
Infrared and Raman Spectra, Chapter V,1, Van Nostrand Reinhold, 1945
Point Group:  Cinfv, Symmetry Number:   1
Rotational constants in cm-1:     0.000000    10.604307    10.604307

Vibrational entropy computed according to the QRRHO of S. Grimme
Chem.Eur.J. 2012 18 9955

-------
ENTROPY
-------

The entropy contributions are T*S = T*(S(el)+S(vib)+S(rot)+S(trans))
     S(el)   - electronic entropy
     S(vib)  - vibrational entropy
     S(rot)  - rotational entropy
     S(trans)- translational entropy
The entropies will be listed as mutliplied by the temperature to get
units of energy

Electronic entropy                ...      0.00000000 Eh      0.00 kcal/mol
Vibrational entropy               ...      0.00000000 Eh      0.00 kcal/mol
Rotational entropy                ...      0.00375081 Eh      2.35 kcal/mol
Translational entropy             ...      0.01744233 Eh     10.95 kcal/mol
-----------------------------------------------------------------------
Final entropy term                ...      0.02119314 Eh     13.30 kcal/mol

-------------------
GIBBS FREE ENTHALPY
-------------------

The Gibbs free enthalpy is G = H - T*S

Total enthalpy                    ...   -460.28264062 Eh
Total entropy correction          ...     -0.02119314 Eh    -13.30 kcal/mol
-----------------------------------------------------------------------
Final Gibbs free enthalpy         ...   -460.30383376 Eh

For completeness - the Gibbs free enthalpy minus the electronic energy
G-E(el)                           ...     -0.01086281 Eh     -6.82 kcal/mol

                             ****ORCA TERMINATED NORMALLY****
TOTAL RUN TIME: 0 days 0 hours 0 minutes 49 seconds 161 msec
