                         Program Version 4.1.1  - RELEASE  -
|  1> ! UHF MP2 6-311G** Opt Freq NoFrozenCore TightOpt TightSCF
|  2>
|  3> *xyz 0 1
|  4> C        0.000000000      0.000000000      0.000000000
|  5> H       -0.629155000     -0.629155000      0.629155000
|  6> H        0.629155000     -0.629155000     -0.629155000
|  7> H       -0.629155000      0.629155000     -0.629155000
|  8> H        0.629155000      0.629155000      0.629155000
|  9> *
| 10> %pal
| 11>  nprocs 4
| 12> end
| 13>
| 14>                          ****END OF INPUT****
 Total Charge           Charge          ....    0
 Multiplicity           Mult            ....    1
 Number of Electrons    NEL             ....   10
MP2 TOTAL ENERGY:      -40.398043196 Eh
FINAL SINGLE POINT ENERGY       -40.398043195559
                    ***********************HURRAY********************

CARTESIAN COORDINATES (ANGSTROEM)
---------------------------------
  C     -0.000000   -0.000000   -0.000000
  H     -0.629155   -0.629155    0.629155
  H      0.629155   -0.629155   -0.629155
  H     -0.629155    0.629155   -0.629155
  H      0.629155    0.629155    0.629155

 Multiplicity           Mult            ....    1
 Number of Electrons    NEL             ....   10
 Basis Dimension        Dim             ....   42

ORBITAL ENERGIES
----------------
                 SPIN UP ORBITALS
  NO   OCC          E(Eh)            E(eV)
   0   1.0000     -11.207722      -304.9776
   1   1.0000      -0.942745       -25.6534
   2   1.0000      -0.544679       -14.8215
   3   1.0000      -0.544679       -14.8215
   4   1.0000      -0.544679       -14.8215
   5   0.0000       0.161718         4.4006
   6   0.0000       0.237053         6.4505
   7   0.0000       0.237053         6.4505
   8   0.0000       0.237053         6.4505
   9   0.0000       0.427116        11.6224

                 SPIN DOWN ORBITALS
  NO   OCC          E(Eh)            E(eV)
   0   1.0000     -11.207722      -304.9776
   1   1.0000      -0.942745       -25.6534
   2   1.0000      -0.544679       -14.8215
   3   1.0000      -0.544679       -14.8215
   4   1.0000      -0.544679       -14.8215
   5   0.0000       0.161718         4.4006
   6   0.0000       0.237053         6.4505
   7   0.0000       0.237053         6.4505
   8   0.0000       0.237053         6.4505
   9   0.0000       0.427116        11.6224

MULLIKEN ATOMIC CHARGES AND SPIN DENSITIES
------------------------------------------
   0 C :   -0.423511   -0.000000
   1 H :    0.105878   -0.000000
   2 H :    0.105878    0.000000
   3 H :    0.105878    0.000000
   4 H :    0.105878    0.000000
Sum of atomic charges       :    0.0000000

LOEWDIN ATOMIC CHARGES AND SPIN DENSITIES
-----------------------------------------
   0 C :   -0.039826   -0.000000
   1 H :    0.009956   -0.000000
   2 H :    0.009956    0.000000
   3 H :    0.009956    0.000000
   4 H :    0.009956    0.000000

  Mayer bond orders larger than 0.1
B(  0-C ,  1-H ) :   0.9493 B(  0-C ,  2-H ) :   0.9493 B(  0-C ,  3-H ) :   0.9493
B(  0-C ,  4-H ) :   0.9493

MP2 TOTAL ENERGY:      -40.398042678 Eh
FINAL SINGLE POINT ENERGY       -40.398042677937

DIPOLE MOMENT
-------------
                                X             Y             Z
Electronic contribution:     -0.00000      -0.00000      -0.00000
Nuclear contribution   :      0.00000       0.00000       0.00000
                        -----------------------------------------
Total Dipole Moment    :      0.00000       0.00000       0.00000
                        -----------------------------------------
Magnitude (a.u.)       :      0.00000
Magnitude (Debye)      :      0.00000

VIBRATIONAL FREQUENCIES
-----------------------

Scaling factor for frequencies =  1.000000000  (already applied!)

   0:         0.00 cm**-1
   1:         0.00 cm**-1
   2:         0.00 cm**-1
   3:         0.00 cm**-1
   4:         0.00 cm**-1
   5:         0.00 cm**-1
   6:      1362.83 cm**-1
   7:      1362.83 cm**-1
   8:      1362.83 cm**-1
   9:      1579.19 cm**-1
  10:      1579.19 cm**-1
  11:      3081.73 cm**-1
  12:      3219.97 cm**-1
  13:      3219.97 cm**-1
  14:      3219.97 cm**-1

IR SPECTRUM
-----------

 Mode    freq (cm**-1)   T**2         TX         TY         TZ
-------------------------------------------------------------------
   6:      1362.83   14.364826  ( -1.264689   2.194466   2.819523)
   7:      1362.83   14.364826  (  2.297318   2.790149  -1.141149)
   8:      1362.83   14.364826  (  2.736369  -1.328236   2.261172)
   9:      1579.19    0.000000  ( -0.000000  -0.000000   0.000000)
  10:      1579.19    0.000000  (  0.000000   0.000000   0.000000)
  11:      3081.73    0.000000  (  0.000000   0.000000  -0.000000)
  12:      3219.97   21.196911  (  0.904740  -1.759329   4.157297)
  13:      3219.97   21.196911  ( -4.216911  -1.842704   0.137898)
  14:      3219.97   21.196911  ( -1.611217   3.834855   1.973519)

--------------------------
THERMOCHEMISTRY AT 298.15K
--------------------------

Temperature         ... 298.15 K
Pressure            ... 1.00 atm
Total Mass          ... 16.04 AMU

Throughout the following assumptions are being made:
  (1) The electronic state is orbitally nondegenerate
  (2) There are no thermally accessible electronically excited states
  (3) Hindered rotations indicated by low frequency modes are not
      treated as such but are treated as vibrations and this may
      cause some error
  (4) All equations used are the standard statistical mechanics
      equations for an ideal gas
  (5) All vibrations are strictly harmonic

freq.    1362.83  E(vib)   ...       0.01
freq.    1362.83  E(vib)   ...       0.01
freq.    1362.83  E(vib)   ...       0.01
freq.    1579.19  E(vib)   ...       0.00
freq.    1579.19  E(vib)   ...       0.00
freq.    3081.73  E(vib)   ...       0.00
freq.    3219.97  E(vib)   ...       0.00
freq.    3219.97  E(vib)   ...       0.00
freq.    3219.97  E(vib)   ...       0.00

------------
INNER ENERGY
------------

The inner energy is: U= E(el) + E(ZPE) + E(vib) + E(rot) + E(trans)
    E(el)   - is the total energy from the electronic structure calculation
              = E(kin-el) + E(nuc-el) + E(el-el) + E(nuc-nuc)
    E(ZPE)  - the the zero temperature vibrational energy from the frequency calculation
    E(vib)  - the the finite temperature correction to E(ZPE) due to population
              of excited vibrational states
    E(rot)  - is the rotational thermal energy
    E(trans)- is the translational thermal energy

Summary of contributions to the inner energy U:
Electronic energy                ...    -40.39804268 Eh
Zero point energy                ...      0.04553715 Eh      28.57 kcal/mol
Thermal vibrational correction   ...      0.00003305 Eh       0.02 kcal/mol
Thermal rotational correction    ...      0.00141627 Eh       0.89 kcal/mol
Thermal translational correction ...      0.00141627 Eh       0.89 kcal/mol
-----------------------------------------------------------------------
Total thermal energy                    -40.34963993 Eh

Summary of corrections to the electronic energy:
(perhaps to be used in another calculation)
Total thermal correction                  0.00286560 Eh       1.80 kcal/mol
Non-thermal (ZPE) correction              0.04553715 Eh      28.57 kcal/mol
-----------------------------------------------------------------------
Total correction                          0.04840275 Eh      30.37 kcal/mol

--------
ENTHALPY
--------

The enthalpy is H = U + kB*T
                kB is Boltzmann's constant
Total free energy                 ...    -40.34963993 Eh
Thermal Enthalpy correction       ...      0.00094421 Eh       0.59 kcal/mol
-----------------------------------------------------------------------
Total Enthalpy                    ...    -40.34869572 Eh

Note: Rotational entropy computed according to Herzberg
Infrared and Raman Spectra, Chapter V,1, Van Nostrand Reinhold, 1945
Point Group:  Td, Symmetry Number:  12
Rotational constants in cm-1:     5.281181     5.281181     5.281181

Vibrational entropy computed according to the QRRHO of S. Grimme
Chem.Eur.J. 2012 18 9955

-------
ENTROPY
-------

The entropy contributions are T*S = T*(S(el)+S(vib)+S(rot)+S(trans))
     S(el)   - electronic entropy
     S(vib)  - vibrational entropy
     S(rot)  - rotational entropy
     S(trans)- translational entropy
The entropies will be listed as mutliplied by the temperature to get
units of energy

Electronic entropy                ...      0.00000000 Eh      0.00 kcal/mol
Vibrational entropy               ...      0.00003794 Eh      0.02 kcal/mol
Rotational entropy                ...      0.00480772 Eh      3.02 kcal/mol
Translational entropy             ...      0.01627961 Eh     10.22 kcal/mol
-----------------------------------------------------------------------
Final entropy term                ...      0.02112527 Eh     13.26 kcal/mol

-------------------
GIBBS FREE ENTHALPY
-------------------

The Gibbs free enthalpy is G = H - T*S

Total enthalpy                    ...    -40.34869572 Eh
Total entropy correction          ...     -0.02112527 Eh    -13.26 kcal/mol
-----------------------------------------------------------------------
Final Gibbs free enthalpy         ...    -40.36982099 Eh

For completeness - the Gibbs free enthalpy minus the electronic energy
G-E(el)                           ...      0.02822169 Eh     17.71 kcal/mol

                             ****ORCA TERMINATED NORMALLY****
TOTAL RUN TIME: 0 days 0 hours 1 minutes 34 seconds 398 msec
