                         Program Version 4.1.1  - RELEASE  -
|  1> ! UHF MP2 6-311G** Opt Freq NoFrozenCore TightOpt TightSCF
|  2>
|  3> *xyz 0 2
|  4> C        0.000000000      0.000000000     -2.553688888
|  5> H       -0.539069652      0.933696026     -2.616994888
|  6> H        1.078139304      0.000000000     -2.616994888
|  7> H        0.000000000      0.000000000     -0.172279888
|  8> H       -0.539069652     -0.933696026     -2.616994888
|  9> Cl       0.000000000      0.000000000      1.107566112
| 10> *
| 11> %pal
| 12>  nprocs 4
| 13> end
| 14>
| 15>                          ****END OF INPUT****
 Total Charge           Charge          ....    0
 Multiplicity           Mult            ....    2
 Number of Electrons    NEL             ....   27
MP2 TOTAL ENERGY:     -500.021959368 Eh
FINAL SINGLE POINT ENERGY      -500.021959367801
                    ***********************HURRAY********************

CARTESIAN COORDINATES (ANGSTROEM)
---------------------------------
  C      0.000000    0.000000   -2.553686
  H     -0.539069    0.933695   -2.616996
  H      1.078139    0.000000   -2.616996
  H      0.000000   -0.000000   -0.172281
  H     -0.539069   -0.933695   -2.616996
  Cl    -0.000000   -0.000000    1.107567

 Multiplicity           Mult            ....    2
 Number of Electrons    NEL             ....   27
 Basis Dimension        Dim             ....   68

ORBITAL ENERGIES
----------------
                 SPIN UP ORBITALS
  NO   OCC          E(Eh)            E(eV)
   0   1.0000    -104.839977     -2852.8408
   1   1.0000     -11.256024      -306.2920
   2   1.0000     -10.566820      -287.5378
   3   1.0000      -8.035835      -218.6662
   4   1.0000      -8.032105      -218.5647
   5   1.0000      -8.032105      -218.5647
   6   1.0000      -1.112507       -30.2728
   7   1.0000      -0.970653       -26.4128
   8   1.0000      -0.623233       -16.9590
   9   1.0000      -0.601289       -16.3619
  10   1.0000      -0.601289       -16.3619
  11   1.0000      -0.469378       -12.7724
  12   1.0000      -0.469378       -12.7724
  13   1.0000      -0.408376       -11.1125
  14   0.0000       0.140062         3.8113
  15   0.0000       0.191646         5.2149
  16   0.0000       0.214489         5.8366
  17   0.0000       0.214489         5.8366
  18   0.0000       0.347389         9.4529

                 SPIN DOWN ORBITALS
  NO   OCC          E(Eh)            E(eV)
   0   1.0000    -104.839634     -2852.8315
   1   1.0000     -11.232896      -305.6626
   2   1.0000     -10.566457      -287.5279
   3   1.0000      -8.034410      -218.6274
   4   1.0000      -8.031912      -218.5594
   5   1.0000      -8.031912      -218.5594
   6   1.0000      -1.109464       -30.1900
   7   1.0000      -0.879696       -23.9377
   8   1.0000      -0.616918       -16.7872
   9   1.0000      -0.586364       -15.9558
  10   1.0000      -0.586364       -15.9558
  11   1.0000      -0.468777       -12.7561
  12   1.0000      -0.468777       -12.7561
  13   0.0000       0.081098         2.2068
  14   0.0000       0.155997         4.2449
  15   0.0000       0.219638         5.9767
  16   0.0000       0.219638         5.9767
  17   0.0000       0.230731         6.2785

MULLIKEN ATOMIC CHARGES AND SPIN DENSITIES
------------------------------------------
   0 C :   -0.396507    1.141893
   1 H :    0.139617   -0.056422
   2 H :    0.139617   -0.056422
   3 H :    0.168242    0.012307
   4 H :    0.139617   -0.056422
   5 Cl:   -0.190586    0.015065
Sum of atomic charges       :   -0.0000000

LOEWDIN ATOMIC CHARGES AND SPIN DENSITIES
-----------------------------------------
   0 C :    0.032318    0.968371
   1 H :   -0.000369   -0.002606
   2 H :   -0.000369   -0.002606
   3 H :   -0.055865    0.020792
   4 H :   -0.000369   -0.002606
   5 Cl:    0.024654    0.018656

  Mayer bond orders larger than 0.1
B(  0-C ,  1-H ) :   0.9377 B(  0-C ,  2-H ) :   0.9377 B(  0-C ,  4-H ) :   0.9377
B(  3-H ,  5-Cl) :   0.9164

MP2 TOTAL ENERGY:     -500.021959459 Eh
FINAL SINGLE POINT ENERGY      -500.021959459302

DIPOLE MOMENT
-------------
                                X             Y             Z
Electronic contribution:     -0.00000      -0.00000       8.24414
Nuclear contribution   :      0.00000       0.00000      -9.03755
                        -----------------------------------------
Total Dipole Moment    :      0.00000       0.00000      -0.79340
                        -----------------------------------------
Magnitude (a.u.)       :      0.79340
Magnitude (Debye)      :      2.01667

VIBRATIONAL FREQUENCIES
-----------------------

Scaling factor for frequencies =  1.000000000  (already applied!)

   0:         0.00 cm**-1
   1:         0.00 cm**-1
   2:         0.00 cm**-1
   3:         0.00 cm**-1
   4:         0.00 cm**-1
   5:         0.00 cm**-1
   6:        84.68 cm**-1
   7:       120.05 cm**-1
   8:       120.07 cm**-1
   9:       294.69 cm**-1
  10:       294.69 cm**-1
  11:       583.45 cm**-1
  12:      1446.56 cm**-1
  13:      1446.61 cm**-1
  14:      2986.44 cm**-1
  15:      3169.55 cm**-1
  16:      3362.31 cm**-1
  17:      3362.31 cm**-1

IR SPECTRUM
-----------

 Mode    freq (cm**-1)   T**2         TX         TY         TZ
-------------------------------------------------------------------
   6:        84.68    1.086063  (  0.000009   0.000000   1.042143)
   7:       120.05    3.535559  (  0.000231  -1.880308   0.000000)
   8:       120.07    3.535588  ( -1.880316  -0.000231  -0.000277)
   9:       294.69   31.729377  ( -5.632883   0.000885  -0.000198)
  10:       294.69   31.729544  ( -0.000885  -5.632898  -0.000000)
  11:       583.45  104.435271  (  0.000011  -0.000000  10.219358)
  12:      1446.56    3.722571  ( -1.929386  -0.000001   0.006499)
  13:      1446.61    3.726050  ( -0.000001   1.930298   0.000000)
  14:      2986.44  223.533804  ( -0.000008  -0.000000 -14.951047)
  15:      3169.55    0.160256  (  0.000649  -0.000000  -0.400320)
  16:      3362.31    1.196723  (  1.093946   0.000001   0.002065)
  17:      3362.31    1.198789  (  0.000001  -1.094892   0.000000)

--------------------------
THERMOCHEMISTRY AT 298.15K
--------------------------

Temperature         ... 298.15 K
Pressure            ... 1.00 atm
Total Mass          ... 51.50 AMU

Throughout the following assumptions are being made:
  (1) The electronic state is orbitally nondegenerate
      but the spin degeneracy is treated
  (2) There are no thermally accessible electronically excited states
  (3) Hindered rotations indicated by low frequency modes are not
      treated as such but are treated as vibrations and this may
      cause some error
  (4) All equations used are the standard statistical mechanics
      equations for an ideal gas
  (5) All vibrations are strictly harmonic

freq.      84.68  E(vib)   ...       0.48
freq.     120.05  E(vib)   ...       0.44
freq.     120.07  E(vib)   ...       0.44
freq.     294.69  E(vib)   ...       0.27
freq.     294.69  E(vib)   ...       0.27
freq.     583.45  E(vib)   ...       0.11
freq.    1446.56  E(vib)   ...       0.00
freq.    1446.61  E(vib)   ...       0.00
freq.    2986.44  E(vib)   ...       0.00
freq.    3169.55  E(vib)   ...       0.00
freq.    3362.31  E(vib)   ...       0.00
freq.    3362.31  E(vib)   ...       0.00

------------
INNER ENERGY
------------

The inner energy is: U= E(el) + E(ZPE) + E(vib) + E(rot) + E(trans)
    E(el)   - is the total energy from the electronic structure calculation
              = E(kin-el) + E(nuc-el) + E(el-el) + E(nuc-nuc)
    E(ZPE)  - the the zero temperature vibrational energy from the frequency calculation
    E(vib)  - the the finite temperature correction to E(ZPE) due to population
              of excited vibrational states
    E(rot)  - is the rotational thermal energy
    E(trans)- is the translational thermal energy

Summary of contributions to the inner energy U:
Electronic energy                ...   -500.02195946 Eh
Zero point energy                ...      0.03934718 Eh      24.69 kcal/mol
Thermal vibrational correction   ...      0.00319361 Eh       2.00 kcal/mol
Thermal rotational correction    ...      0.00141627 Eh       0.89 kcal/mol
Thermal translational correction ...      0.00141627 Eh       0.89 kcal/mol
-----------------------------------------------------------------------
Total thermal energy                   -499.97658613 Eh

Summary of corrections to the electronic energy:
(perhaps to be used in another calculation)
Total thermal correction                  0.00602615 Eh       3.78 kcal/mol
Non-thermal (ZPE) correction              0.03934718 Eh      24.69 kcal/mol
-----------------------------------------------------------------------
Total correction                          0.04537333 Eh      28.47 kcal/mol

--------
ENTHALPY
--------

The enthalpy is H = U + kB*T
                kB is Boltzmann's constant
Total free energy                 ...   -499.97658613 Eh
Thermal Enthalpy correction       ...      0.00094421 Eh       0.59 kcal/mol
-----------------------------------------------------------------------
Total Enthalpy                    ...   -499.97564192 Eh

Note: Rotational entropy computed according to Herzberg
Infrared and Raman Spectra, Chapter V,1, Van Nostrand Reinhold, 1945
Point Group:  C3v, Symmetry Number:   3
Rotational constants in cm-1:     4.795854     0.116815     0.116815

Vibrational entropy computed according to the QRRHO of S. Grimme
Chem.Eur.J. 2012 18 9955

-------
ENTROPY
-------

The entropy contributions are T*S = T*(S(el)+S(vib)+S(rot)+S(trans))
     S(el)   - electronic entropy
     S(vib)  - vibrational entropy
     S(rot)  - rotational entropy
     S(trans)- translational entropy
The entropies will be listed as mutliplied by the temperature to get
units of energy

Electronic entropy                ...      0.00065446 Eh      0.41 kcal/mol
Vibrational entropy               ...      0.00599236 Eh      3.76 kcal/mol
Rotational entropy                ...      0.00976071 Eh      6.12 kcal/mol
Translational entropy             ...      0.01793131 Eh     11.25 kcal/mol
-----------------------------------------------------------------------
Final entropy term                ...      0.03433884 Eh     21.55 kcal/mol

-------------------
GIBBS FREE ENTHALPY
-------------------

The Gibbs free enthalpy is G = H - T*S

Total enthalpy                    ...   -499.97564192 Eh
Total entropy correction          ...     -0.03433884 Eh    -21.55 kcal/mol
-----------------------------------------------------------------------
Final Gibbs free enthalpy         ...   -500.00998076 Eh

For completeness - the Gibbs free enthalpy minus the electronic energy
G-E(el)                           ...      0.01197869 Eh      7.52 kcal/mol

                             ****ORCA TERMINATED NORMALLY****
TOTAL RUN TIME: 0 days 0 hours 6 minutes 8 seconds 640 msec
