                         Program Version 4.1.1  - RELEASE  -
|  1> ! UHF MP2 6-311G** Opt Freq NoFrozenCore TightOpt TightSCF
|  2>
|  3> *xyz 0 2
|  4> C        0.000000000      0.000000000     -3.007305786
|  5> H       -0.513643152      0.889656037     -3.371149786
|  6> H        1.027286305      0.000000000     -3.371149786
|  7> H        0.000000000      0.000000000     -1.917974786
|  8> H       -0.513643152     -0.889656037     -3.371149786
|  9> Cl       0.000000000      0.000000000      1.378748214
| 10> *
| 11> %pal
| 12>  nprocs 4
| 13> end
| 14>
| 15>                          ****END OF INPUT****
 Total Charge           Charge          ....    0
 Multiplicity           Mult            ....    2
 Number of Electrons    NEL             ....   27
MP2 TOTAL ENERGY:     -500.032289345 Eh
FINAL SINGLE POINT ENERGY      -500.032289345080
                    ***********************HURRAY********************

CARTESIAN COORDINATES (ANGSTROEM)
---------------------------------
  C      0.000024   -0.000000   -3.007300
  H     -0.513677    0.889606   -3.371199
  H      1.027314    0.000000   -3.371124
  H      0.000001   -0.000000   -1.917973
  H     -0.513677   -0.889606   -3.371199
  Cl     0.000014   -0.000000    1.378813

 Multiplicity           Mult            ....    2
 Number of Electrons    NEL             ....   27
 Basis Dimension        Dim             ....   68

ORBITAL ENERGIES
----------------
                 SPIN UP ORBITALS
  NO   OCC          E(Eh)            E(eV)
   0   1.0000    -104.892327     -2854.2653
   1   1.0000     -11.206098      -304.9334
   2   1.0000     -10.616081      -288.8783
   3   1.0000      -8.102597      -220.4829
   4   1.0000      -8.077256      -219.7933
   5   1.0000      -8.077236      -219.7928
   6   1.0000      -1.138991       -30.9935
   7   1.0000      -0.941408       -25.6170
   8   1.0000      -0.581272       -15.8172
   9   1.0000      -0.544667       -14.8212
  10   1.0000      -0.543350       -14.7853
  11   1.0000      -0.543308       -14.7842
  12   1.0000      -0.506537       -13.7836
  13   1.0000      -0.505736       -13.7618
  14   0.0000       0.163996         4.4625
  15   0.0000       0.237571         6.4646
  16   0.0000       0.237757         6.4697
  17   0.0000       0.249962         6.8018
  18   0.0000       0.371718        10.1150

                 SPIN DOWN ORBITALS
  NO   OCC          E(Eh)            E(eV)
   0   1.0000    -104.881208     -2853.9628
   1   1.0000     -11.206106      -304.9337
   2   1.0000     -10.604548      -288.5644
   3   1.0000      -8.071271      -219.6304
   4   1.0000      -8.071258      -219.6301
   5   1.0000      -8.053521      -219.1475
   6   1.0000      -1.016732       -27.6667
   7   1.0000      -0.941429       -25.6176
   8   1.0000      -0.544241       -14.8096
   9   1.0000      -0.543356       -14.7855
  10   1.0000      -0.543311       -14.7842
  11   1.0000      -0.480563       -13.0768
  12   1.0000      -0.480372       -13.0716
  13   0.0000      -0.047993        -1.3059
  14   0.0000       0.164219         4.4686
  15   0.0000       0.237618         6.4659
  16   0.0000       0.237758         6.4697
  17   0.0000       0.251703         6.8492

MULLIKEN ATOMIC CHARGES AND SPIN DENSITIES
------------------------------------------
   0 C :   -0.427928   -0.000115
   1 H :    0.104631    0.000010
   2 H :    0.104931    0.000005
   3 H :    0.117641   -0.001280
   4 H :    0.104631    0.000010
   5 Cl:   -0.003906    1.001369
Sum of atomic charges       :   -0.0000000

LOEWDIN ATOMIC CHARGES AND SPIN DENSITIES
-----------------------------------------
   0 C :   -0.040829   -0.000169
   1 H :    0.009734    0.000000
   2 H :    0.009820   -0.000003
   3 H :    0.008097   -0.000576
   4 H :    0.009734    0.000000
   5 Cl:    0.003444    1.000747

  Mayer bond orders larger than 0.1
B(  0-C ,  1-H ) :   0.9497 B(  0-C ,  2-H ) :   0.9496 B(  0-C ,  3-H ) :   0.9477
B(  0-C ,  4-H ) :   0.9497

MP2 TOTAL ENERGY:     -500.032289452 Eh
FINAL SINGLE POINT ENERGY      -500.032289452485

DIPOLE MOMENT
-------------
                                X             Y             Z
Electronic contribution:      0.00018      -0.00000      13.15898
Nuclear contribution   :     -0.00009       0.00000     -13.16802
                        -----------------------------------------
Total Dipole Moment    :      0.00009      -0.00000      -0.00904
                        -----------------------------------------
Magnitude (a.u.)       :      0.00904
Magnitude (Debye)      :      0.02298

VIBRATIONAL FREQUENCIES
-----------------------

Scaling factor for frequencies =  1.000000000  (already applied!)

   0:         0.00 cm**-1
   1:         0.00 cm**-1
   2:         0.00 cm**-1
   3:         0.00 cm**-1
   4:         0.00 cm**-1
   5:         0.00 cm**-1
   6:        42.61 cm**-1
   7:        57.97 cm**-1
   8:        63.43 cm**-1
   9:      1346.18 cm**-1
  10:      1362.04 cm**-1
  11:      1364.64 cm**-1
  12:      1574.37 cm**-1
  13:      1580.54 cm**-1
  14:      3082.39 cm**-1
  15:      3217.55 cm**-1
  16:      3218.79 cm**-1
  17:      3225.37 cm**-1

IR SPECTRUM
-----------

 Mode    freq (cm**-1)   T**2         TX         TY         TZ
-------------------------------------------------------------------
   6:        42.61    0.000943  (  0.000710  -0.000218  -0.030705)
   7:        57.97    0.107764  ( -0.001605  -0.328259   0.002744)
   8:        63.43    0.008060  (  0.089712  -0.002384   0.002542)
   9:      1346.18   17.387173  ( -0.004698   4.169739   0.020628)
  10:      1362.04   13.605612  (  0.062850   0.009628  -3.688030)
  11:      1364.64   14.296452  ( -3.780462  -0.000337  -0.067547)
  12:      1574.37    0.458595  (  0.000058  -0.677197  -0.000160)
  13:      1580.54    0.001146  ( -0.033626  -0.000166   0.003882)
  14:      3082.39    0.247719  ( -0.005942   0.003457  -0.497666)
  15:      3217.55   23.688798  ( -0.013557  -4.867089   0.007500)
  16:      3218.79   21.463996  (  4.632902  -0.010831   0.010005)
  17:      3225.37   17.811165  ( -0.005521  -0.001595   4.220324)

--------------------------
THERMOCHEMISTRY AT 298.15K
--------------------------

Temperature         ... 298.15 K
Pressure            ... 1.00 atm
Total Mass          ... 51.50 AMU

Throughout the following assumptions are being made:
  (1) The electronic state is orbitally nondegenerate
      but the spin degeneracy is treated
  (2) There are no thermally accessible electronically excited states
  (3) Hindered rotations indicated by low frequency modes are not
      treated as such but are treated as vibrations and this may
      cause some error
  (4) All equations used are the standard statistical mechanics
      equations for an ideal gas
  (5) All vibrations are strictly harmonic

freq.      42.61  E(vib)   ...       0.53
freq.      57.97  E(vib)   ...       0.51
freq.      63.43  E(vib)   ...       0.51
freq.    1346.18  E(vib)   ...       0.01
freq.    1362.04  E(vib)   ...       0.01
freq.    1364.64  E(vib)   ...       0.01
freq.    1574.37  E(vib)   ...       0.00
freq.    1580.54  E(vib)   ...       0.00
freq.    3082.39  E(vib)   ...       0.00
freq.    3217.55  E(vib)   ...       0.00
freq.    3218.79  E(vib)   ...       0.00
freq.    3225.37  E(vib)   ...       0.00

------------
INNER ENERGY
------------

The inner energy is: U= E(el) + E(ZPE) + E(vib) + E(rot) + E(trans)
    E(el)   - is the total energy from the electronic structure calculation
              = E(kin-el) + E(nuc-el) + E(el-el) + E(nuc-nuc)
    E(ZPE)  - the the zero temperature vibrational energy from the frequency calculation
    E(vib)  - the the finite temperature correction to E(ZPE) due to population
              of excited vibrational states
    E(rot)  - is the rotational thermal energy
    E(trans)- is the translational thermal energy

Summary of contributions to the inner energy U:
Electronic energy                ...   -500.03228945 Eh
Zero point energy                ...      0.04587289 Eh      28.79 kcal/mol
Thermal vibrational correction   ...      0.00250950 Eh       1.57 kcal/mol
Thermal rotational correction    ...      0.00141627 Eh       0.89 kcal/mol
Thermal translational correction ...      0.00141627 Eh       0.89 kcal/mol
-----------------------------------------------------------------------
Total thermal energy                   -499.98107452 Eh

Summary of corrections to the electronic energy:
(perhaps to be used in another calculation)
Total thermal correction                  0.00534204 Eh       3.35 kcal/mol
Non-thermal (ZPE) correction              0.04587289 Eh      28.79 kcal/mol
-----------------------------------------------------------------------
Total correction                          0.05121493 Eh      32.14 kcal/mol

--------
ENTHALPY
--------

The enthalpy is H = U + kB*T
                kB is Boltzmann's constant
Total free energy                 ...   -499.98107452 Eh
Thermal Enthalpy correction       ...      0.00094421 Eh       0.59 kcal/mol
-----------------------------------------------------------------------
Total Enthalpy                    ...   -499.98013031 Eh

Note: Rotational entropy computed according to Herzberg
Infrared and Raman Spectra, Chapter V,1, Van Nostrand Reinhold, 1945
Point Group:  Cs, Symmetry Number:   1
Rotational constants in cm-1:     5.282500     0.078157     0.078157

Vibrational entropy computed according to the QRRHO of S. Grimme
Chem.Eur.J. 2012 18 9955

-------
ENTROPY
-------

The entropy contributions are T*S = T*(S(el)+S(vib)+S(rot)+S(trans))
     S(el)   - electronic entropy
     S(vib)  - vibrational entropy
     S(rot)  - rotational entropy
     S(trans)- translational entropy
The entropies will be listed as mutliplied by the temperature to get
units of energy

Electronic entropy                ...      0.00065446 Eh      0.41 kcal/mol
Vibrational entropy               ...      0.00512845 Eh      3.22 kcal/mol
Rotational entropy                ...      0.01113181 Eh      6.99 kcal/mol
Translational entropy             ...      0.01793131 Eh     11.25 kcal/mol
-----------------------------------------------------------------------
Final entropy term                ...      0.03484603 Eh     21.87 kcal/mol

-------------------
GIBBS FREE ENTHALPY
-------------------

The Gibbs free enthalpy is G = H - T*S

Total enthalpy                    ...   -499.98013031 Eh
Total entropy correction          ...     -0.03484603 Eh    -21.87 kcal/mol
-----------------------------------------------------------------------
Final Gibbs free enthalpy         ...   -500.01497634 Eh

For completeness - the Gibbs free enthalpy minus the electronic energy
G-E(el)                           ...      0.01731311 Eh     10.86 kcal/mol

                             ****ORCA TERMINATED NORMALLY****
TOTAL RUN TIME: 0 days 0 hours 7 minutes 59 seconds 817 msec
