                         Program Version 4.1.1  - RELEASE  -
|  1> ! UHF MP2 6-311G** OptTS Freq NoFrozenCore TightOpt TightSCF
|  2>
|  3> %geom
|  4>  calc_hess true
|  5>  ts_mode
|  6>   {B 0 3}
|  7>  end
|  8>  ts_active_atoms
|  9>   {0 3 5}
| 10>  end
| 11>  modify_internal
| 12>   {B 0 3 A}
| 13>   {B 3 5 A}
| 14>  end
| 15> end
| 16>
| 17> *xyz 0 2
| 18> C        0.000000000      0.000000000      1.948769792
| 19> H       -1.062547676      0.000000000      2.167426792
| 20> H        0.531273838     -0.920193280      2.167426792
| 21> H        0.000000000      0.000000000      0.565685792
| 22> H        0.531273838      0.920193280      2.167426792
| 23> Cl       0.000000000      0.000000000     -0.872448208
| 24> *
| 25> %pal
| 26>  nprocs 4
| 27> end
| 28>
| 29>                          ****END OF INPUT****
 Total Charge           Charge          ....    0
 Multiplicity           Mult            ....    2
 Number of Electrons    NEL             ....   27
MP2 TOTAL ENERGY:     -500.013174382 Eh
FINAL SINGLE POINT ENERGY      -500.013174381978
                    ***********************HURRAY********************

CARTESIAN COORDINATES (ANGSTROEM)
---------------------------------
  C     -0.000000   -0.000000    1.948719
  H     -1.062565    0.000000    2.167348
  H      0.531283   -0.920208    2.167348
  H     -0.000000   -0.000000    0.565852
  H      0.531283    0.920208    2.167348
  Cl     0.000000    0.000000   -0.872327

 Multiplicity           Mult            ....    2
 Number of Electrons    NEL             ....   27
 Basis Dimension        Dim             ....   68

ORBITAL ENERGIES
----------------
                 SPIN UP ORBITALS
  NO   OCC          E(Eh)            E(eV)
   0   1.0000    -104.822082     -2852.3539
   1   1.0000     -11.285770      -307.1014
   2   1.0000     -10.548281      -287.0333
   3   1.0000      -8.024993      -218.3712
   4   1.0000      -8.011956      -218.0164
   5   1.0000      -8.011956      -218.0164
   6   1.0000      -1.102636       -30.0042
   7   1.0000      -1.002253       -27.2727
   8   1.0000      -0.646335       -17.5877
   9   1.0000      -0.619420       -16.8553
  10   1.0000      -0.619420       -16.8553
  11   1.0000      -0.454069       -12.3558
  12   1.0000      -0.454069       -12.3558
  13   1.0000      -0.419366       -11.4115
  14   0.0000       0.143266         3.8985
  15   0.0000       0.205478         5.5913
  16   0.0000       0.205478         5.5913
  17   0.0000       0.263686         7.1753
  18   0.0000       0.335427         9.1274

                 SPIN DOWN ORBITALS
  NO   OCC          E(Eh)            E(eV)
   0   1.0000    -104.816404     -2852.1994
   1   1.0000     -11.266518      -306.5775
   2   1.0000     -10.542264      -286.8696
   3   1.0000      -8.008648      -217.9264
   4   1.0000      -8.008648      -217.9264
   5   1.0000      -8.001468      -217.7310
   6   1.0000      -1.053627       -28.6706
   7   1.0000      -0.928508       -25.2660
   8   1.0000      -0.606604       -16.5065
   9   1.0000      -0.606604       -16.5065
  10   1.0000      -0.557098       -15.1594
  11   1.0000      -0.442873       -12.0512
  12   1.0000      -0.442873       -12.0512
  13   0.0000       0.017277         0.4701
  14   0.0000       0.152570         4.1516
  15   0.0000       0.210838         5.7372
  16   0.0000       0.210838         5.7372
  17   0.0000       0.292131         7.9493

MULLIKEN ATOMIC CHARGES AND SPIN DENSITIES
------------------------------------------
   0 C :   -0.365071    0.740604
   1 H :    0.151178   -0.023160
   2 H :    0.151178   -0.023160
   3 H :    0.158713   -0.054067
   4 H :    0.151178   -0.023160
   5 Cl:   -0.247174    0.382942
Sum of atomic charges       :   -0.0000000

LOEWDIN ATOMIC CHARGES AND SPIN DENSITIES
-----------------------------------------
   0 C :    0.077672    0.587384
   1 H :    0.019552    0.002503
   2 H :    0.019552    0.002503
   3 H :   -0.063494    0.056237
   4 H :    0.019552    0.002503
   5 Cl:   -0.072832    0.348870

  Mayer bond orders larger than 0.1
B(  0-C ,  1-H ) :   0.9355 B(  0-C ,  2-H ) :   0.9355 B(  0-C ,  3-H ) :   0.3879
B(  0-C ,  4-H ) :   0.9355 B(  0-C ,  5-Cl) :   0.1036 B(  3-H ,  5-Cl) :   0.5846

MP2 TOTAL ENERGY:     -500.013173217 Eh
FINAL SINGLE POINT ENERGY      -500.013173217493

DIPOLE MOMENT
-------------
                                X             Y             Z
Electronic contribution:      0.00000       0.00000      -6.63139
Nuclear contribution   :     -0.00000      -0.00000       7.82032
                        -----------------------------------------
Total Dipole Moment    :     -0.00000      -0.00000       1.18893
                        -----------------------------------------
Magnitude (a.u.)       :      1.18893
Magnitude (Debye)      :      3.02201

VIBRATIONAL FREQUENCIES
-----------------------

Scaling factor for frequencies =  1.000000000  (already applied!)

   0:         0.00 cm**-1
   1:         0.00 cm**-1
   2:         0.00 cm**-1
   3:         0.00 cm**-1
   4:         0.00 cm**-1
   5:         0.00 cm**-1
   6:     -1236.63 cm**-1 ***imaginary mode***
   7:       359.13 cm**-1
   8:       359.14 cm**-1
   9:       529.75 cm**-1
  10:       944.52 cm**-1
  11:       944.52 cm**-1
  12:      1225.39 cm**-1
  13:      1452.46 cm**-1
  14:      1452.48 cm**-1
  15:      3135.67 cm**-1
  16:      3307.01 cm**-1
  17:      3307.04 cm**-1

IR SPECTRUM
-----------

 Mode    freq (cm**-1)   T**2         TX         TY         TZ
-------------------------------------------------------------------
   7:       359.13    0.832513  ( -0.000010   0.912421   0.000000)
   8:       359.14    0.834085  (  0.913283   0.000010  -0.000293)
   9:       529.75    4.821928  (  0.000033   0.000000  -2.195889)
  10:       944.52   11.750701  (  0.020087   3.427871   0.000001)
  11:       944.52   11.748233  (  3.427511  -0.020089   0.000117)
  12:      1225.39    1.758558  (  0.000103  -0.000000   1.326106)
  13:      1452.46    5.425788  ( -2.329332   0.000010   0.000868)
  14:      1452.48    5.447620  (  0.000010   2.334014  -0.000000)
  15:      3135.67    0.077458  (  0.000536  -0.000000   0.278312)
  16:      3307.01    0.404267  ( -0.000000  -0.635820  -0.000000)
  17:      3307.04    0.405488  ( -0.636770   0.000000   0.003419)

--------------------------
THERMOCHEMISTRY AT 298.15K
--------------------------

Temperature         ... 298.15 K
Pressure            ... 1.00 atm
Total Mass          ... 51.50 AMU

Throughout the following assumptions are being made:
  (1) The electronic state is orbitally nondegenerate
      but the spin degeneracy is treated
  (2) There are no thermally accessible electronically excited states
  (3) Hindered rotations indicated by low frequency modes are not
      treated as such but are treated as vibrations and this may
      cause some error
  (4) All equations used are the standard statistical mechanics
      equations for an ideal gas
  (5) All vibrations are strictly harmonic

freq.     359.13  E(vib)   ...       0.22
freq.     359.14  E(vib)   ...       0.22
freq.     529.75  E(vib)   ...       0.13
freq.     944.52  E(vib)   ...       0.03
freq.     944.52  E(vib)   ...       0.03
freq.    1225.39  E(vib)   ...       0.01
freq.    1452.46  E(vib)   ...       0.00
freq.    1452.48  E(vib)   ...       0.00
freq.    3135.67  E(vib)   ...       0.00
freq.    3307.01  E(vib)   ...       0.00
freq.    3307.04  E(vib)   ...       0.00

------------
INNER ENERGY
------------

The inner energy is: U= E(el) + E(ZPE) + E(vib) + E(rot) + E(trans)
    E(el)   - is the total energy from the electronic structure calculation
              = E(kin-el) + E(nuc-el) + E(el-el) + E(nuc-nuc)
    E(ZPE)  - the the zero temperature vibrational energy from the frequency calculation
    E(vib)  - the the finite temperature correction to E(ZPE) due to population
              of excited vibrational states
    E(rot)  - is the rotational thermal energy
    E(trans)- is the translational thermal energy

Summary of contributions to the inner energy U:
Electronic energy                ...   -500.01317322 Eh
Zero point energy                ...      0.03876782 Eh      24.33 kcal/mol
Thermal vibrational correction   ...      0.00102398 Eh       0.64 kcal/mol
Thermal rotational correction    ...      0.00141627 Eh       0.89 kcal/mol
Thermal translational correction ...      0.00141627 Eh       0.89 kcal/mol
-----------------------------------------------------------------------
Total thermal energy                   -499.97054888 Eh

Summary of corrections to the electronic energy:
(perhaps to be used in another calculation)
Total thermal correction                  0.00385653 Eh       2.42 kcal/mol
Non-thermal (ZPE) correction              0.03876782 Eh      24.33 kcal/mol
-----------------------------------------------------------------------
Total correction                          0.04262434 Eh      26.75 kcal/mol

--------
ENTHALPY
--------

The enthalpy is H = U + kB*T
                kB is Boltzmann's constant
Total free energy                 ...   -499.97054888 Eh
Thermal Enthalpy correction       ...      0.00094421 Eh       0.59 kcal/mol
-----------------------------------------------------------------------
Total Enthalpy                    ...   -499.96960467 Eh

Note: Rotational entropy computed according to Herzberg
Infrared and Raman Spectra, Chapter V,1, Van Nostrand Reinhold, 1945
Point Group:  C3v, Symmetry Number:   3
Rotational constants in cm-1:     4.937465     0.189792     0.189792

Vibrational entropy computed according to the QRRHO of S. Grimme
Chem.Eur.J. 2012 18 9955

-------
ENTROPY
-------

The entropy contributions are T*S = T*(S(el)+S(vib)+S(rot)+S(trans))
     S(el)   - electronic entropy
     S(vib)  - vibrational entropy
     S(rot)  - rotational entropy
     S(trans)- translational entropy
The entropies will be listed as mutliplied by the temperature to get
units of energy

Electronic entropy                ...      0.00065446 Eh      0.41 kcal/mol
Vibrational entropy               ...      0.00149470 Eh      0.94 kcal/mol
Rotational entropy                ...      0.00928873 Eh      5.83 kcal/mol
Translational entropy             ...      0.01793131 Eh     11.25 kcal/mol
-----------------------------------------------------------------------
Final entropy term                ...      0.02936920 Eh     18.43 kcal/mol

-------------------
GIBBS FREE ENTHALPY
-------------------

The Gibbs free enthalpy is G = H - T*S

Total enthalpy                    ...   -499.96960467 Eh
Total entropy correction          ...     -0.02936920 Eh    -18.43 kcal/mol
-----------------------------------------------------------------------
Final Gibbs free enthalpy         ...   -499.99897386 Eh

For completeness - the Gibbs free enthalpy minus the electronic energy
G-E(el)                           ...      0.01419935 Eh      8.91 kcal/mol

                             ****ORCA TERMINATED NORMALLY****
TOTAL RUN TIME: 0 days 0 hours 13 minutes 29 seconds 919 msec
