                         Program Version 4.2.1 -  RELEASE  -
|  1> ! revPBE D4 gCP(DFT/TZ) def2-SVP Opt Freq TightOpt TightSCF Grid4 FinalGrid5 LargePrint
|  2>
|  3> %pal
|  4>  nprocs 2
|  5> end
|  6>
|  7> *xyz 0 1
|  8> O  0.156393763 0.663886899  0.296218759
|  9> H -0.450461499 0.359915732  0.975135820
| 10> H  0.165589558 0.035410384 -0.429407083
| 11> *
| 12>
| 13>                          ****END OF INPUT****
 Total Charge           Charge          ....    0
 Multiplicity           Mult            ....    1
 Number of Electrons    NEL             ....   10
Dispersion correction           -0.000941828
FINAL SINGLE POINT ENERGY       -76.331197743555
Dispersion correction            ...
Dispersion correction           -0.000953829
FINAL SINGLE POINT ENERGY       -76.332303071987
Dispersion correction            ...
Dispersion correction           -0.000963311
FINAL SINGLE POINT ENERGY       -76.332755590432
Dispersion correction            ...
FINAL SINGLE POINT ENERGY       -76.332757326443
Dispersion correction            ...
Dispersion correction           -0.000962716
FINAL SINGLE POINT ENERGY       -76.332757384234
Dispersion correction            ...
                    ***********************HURRAY********************

CARTESIAN COORDINATES (ANGSTROEM)
---------------------------------
  O      0.178164    0.697853    0.297922
  H     -0.451181    0.337579    0.951109
  H      0.144539    0.023782   -0.407083

 Multiplicity           Mult            ....    1
 Number of Electrons    NEL             ....   10
 Basis Dimension        Dim             ....   24

ORBITAL ENERGIES
----------------

  NO   OCC          E(Eh)            E(eV)
   0   2.0000     -18.751808      -510.2626
   1   2.0000      -0.887802       -24.1583
   2   2.0000      -0.450015       -12.2455
   3   2.0000      -0.309405        -8.4193
   4   2.0000      -0.227155        -6.1812
   5   0.0000       0.024791         0.6746
   6   0.0000       0.100529         2.7355
   7   0.0000       0.502071        13.6620
   8   0.0000       0.567025        15.4295
   9   0.0000       0.874870        23.8064

------------------
MOLECULAR ORBITALS
------------------
                      0         1         2         3         4         5
                 -18.75181  -0.88780  -0.45002  -0.30941  -0.22715   0.02479
                   2.00000   2.00000   2.00000   2.00000   2.00000   0.00000
                  --------  --------  --------  --------  --------  --------
  0O   1s        -0.988813 -0.275235 -0.000000  0.116629  0.000001 -0.104324
  0O   2s         0.039500 -0.551509 -0.000003  0.229810  0.000003 -0.179963
  0O   3s        -0.014324 -0.257743  0.000007  0.382325 -0.000001 -0.921853
  0O   1pz       -0.000126  0.005443 -0.451650  0.022701 -0.281340  0.011343
  0O   1px       -0.001615  0.069662  0.198101  0.290457 -0.473974  0.145252
  0O   1py       -0.002520  0.108683 -0.104350  0.453148  0.317903  0.226588
  0O   2pz        0.000006  0.000150 -0.182365  0.014025 -0.217456  0.014631
  0O   2px        0.000076  0.001933  0.079985  0.179463 -0.366354  0.187609
  0O   2py        0.000118  0.003013 -0.042140  0.279973  0.245713  0.292678
  0O   1dz2       0.000561 -0.001179  0.001340  0.009430  0.000636  0.003644
  0O   1dxz      -0.000855  0.003534  0.009557 -0.001177  0.005313  0.001003
  0O   1dyz       0.000528 -0.002388  0.015619 -0.000846  0.006912 -0.001400
  0O   1dx2y2    -0.000200  0.001717 -0.007908  0.006523  0.016188  0.003610
  0O   1dxy       0.000536 -0.004167 -0.004485 -0.014140  0.007036 -0.008017
  1H   1s        -0.002266 -0.205917 -0.330058 -0.207320 -0.000009  0.133719
  1H   2s         0.002335 -0.013430 -0.110840 -0.072026  0.000007  0.798028
  1H   1pz        0.002100  0.027540  0.011043  0.023454 -0.014010  0.006257
  1H   1px       -0.002049 -0.020737 -0.019775 -0.002627 -0.023605 -0.003339
  1H   1py       -0.001196 -0.006546 -0.019712  0.016840  0.015832  0.000554
  2H   1s        -0.002266 -0.205916  0.330050 -0.207321 -0.000005  0.133739
  2H   2s         0.002335 -0.013433  0.110843 -0.072030  0.000007  0.797834
  2H   1pz       -0.002270 -0.028848  0.013297 -0.022296 -0.014012 -0.006343
  2H   1px       -0.000132  0.003994  0.009101  0.017437 -0.023603  0.002181
  2H   1py       -0.002206 -0.019575  0.025337  0.006268  0.015832 -0.002364
                      6         7         8         9        10        11
                   0.10053   0.50207   0.56702   0.87487   0.87708   0.96581
                   0.00000   0.00000   0.00000   0.00000   0.00000   0.00000
                  --------  --------  --------  --------  --------  --------
  0O   1s         0.000008  0.000022 -0.103006  0.148642 -0.000334 -0.000017
  0O   2s         0.000020  0.000081 -0.396180  0.644397 -0.001442 -0.000105
  0O   3s         0.000039 -0.000065  0.483744 -0.195571  0.000414  0.000181
  0O   1pz       -0.353139  0.262819  0.016703  0.033354  0.426676  0.699820
  0O   1px        0.154879 -0.115307  0.213388  0.415879  0.718007 -0.306959
  0O   1py       -0.081610  0.060667  0.332983  0.645214 -0.483648  0.161689
  0O   2pz       -0.536144  0.279885 -0.001187 -0.048149 -0.445417 -1.540415
  0O   2px        0.235148 -0.122780 -0.015995 -0.604573 -0.749190  0.675630
  0O   2py       -0.123886  0.064647 -0.024939 -0.939455  0.505527 -0.355937
  0O   1dz2       0.000255  0.006594  0.045948 -0.014404 -0.000012  0.000821
  0O   1dxz       0.001826  0.047106 -0.061171  0.013000 -0.000404  0.005870
  0O   1dyz       0.002983  0.076962  0.036725 -0.006961 -0.000471  0.009592
  0O   1dx2y2    -0.001511 -0.038968 -0.009694 -0.001588 -0.001137 -0.004855
  0O   1dxy      -0.000856 -0.022110  0.028278  0.001964 -0.000504 -0.002752
  1H   1s         0.140358 -0.949775  0.834966 -0.381597  0.000892  0.340392
  1H   2s         1.244579  0.919404 -0.667792  0.025358 -0.000065  0.799525
  1H   1pz        0.003631 -0.031477  0.171950  0.003276 -0.015800 -0.187650
  1H   1px       -0.006994  0.071016 -0.103825 -0.081510 -0.026429  0.145590
  1H   1py       -0.007215  0.078023 -0.002617 -0.118476  0.018128  0.050999
  2H   1s        -0.140400  0.949482  0.835282 -0.381618  0.000880 -0.340455
  2H   2s        -1.244647 -0.919217 -0.668117  0.025352 -0.000067 -0.799595
  2H   1pz        0.004452 -0.040076 -0.176258 -0.015437 -0.015772 -0.197233
  2H   1px        0.003449 -0.039606  0.048900 -0.073297 -0.026443  0.023218
  2H   1py        0.009083 -0.094526 -0.083080 -0.122798  0.018137 -0.139934
                     12        13        14        15        16        17
                   1.04949   1.29174   1.32963   1.47684   1.72430   2.10493
                   0.00000   0.00000   0.00000   0.00000   0.00000   0.00000
                  --------  --------  --------  --------  --------  --------
  0O   1s         0.241657  0.000013 -0.087772  0.000001 -0.000002  0.000007
  0O   2s         1.522931  0.000103 -0.724248  0.000001  0.000001  0.000026
  0O   3s        -2.687761 -0.000230  1.723515  0.000000 -0.000047  0.000049
  0O   1pz       -0.004472 -0.000000  0.005165 -0.009532  0.001942 -0.626602
  0O   1px       -0.057516 -0.000008  0.066325 -0.016057 -0.000849  0.274823
  0O   1py       -0.089677 -0.000016  0.103475  0.010776  0.000453 -0.144792
  0O   2pz        0.025938  0.000004 -0.051846  0.261419 -0.719357 -0.096059
  0O   2px        0.333132  0.000090 -0.663138  0.440368  0.315562  0.042122
  0O   2py        0.519620  0.000119 -1.034628 -0.295370 -0.166159 -0.022207
  0O   1dz2       0.057103 -0.123021  0.089088  0.006943 -0.002309 -0.011361
  0O   1dxz      -0.043922 -0.088501  0.004750  0.058001 -0.016378 -0.080991
  0O   1dyz       0.021973  0.063844 -0.019697  0.075430 -0.026766 -0.132386
  0O   1dx2y2     0.011975  0.033934  0.073522  0.176686  0.013551  0.067026
  0O   1dxy      -0.021127 -0.062827 -0.161442  0.076800  0.007717  0.038014
  1H   1s         0.509000  0.000092 -0.748188 -0.000021  0.326782  0.166586
  1H   2s         0.491045  0.000033 -0.192984  0.000003  0.097225  0.345393
  1H   1pz        0.068066 -0.294969  0.419460 -0.321601  0.426534 -0.595008
  1H   1px        0.146733 -0.496864  0.041201 -0.541798  0.193757  0.541596
  1H   1py        0.278994  0.333199  0.432792  0.363367  0.666403  0.280930
  2H   1s         0.508923  0.000086 -0.748243  0.000002 -0.326688 -0.166624
  2H   2s         0.490976  0.000027 -0.192939  0.000006 -0.097239 -0.345422
  2H   1pz       -0.041385  0.294955 -0.385356 -0.321610  0.369030 -0.637486
  2H   1px        0.194698  0.496801  0.394297 -0.541792 -0.542757 -0.001039
  2H   1py        0.253681 -0.333259  0.246690  0.363402 -0.482619 -0.565729
                     18        19        20        21        22        23
                   2.15571   2.86655   2.88959   3.07946   3.37507   3.72285
                   0.00000   0.00000   0.00000   0.00000   0.00000   0.00000
                  --------  --------  --------  --------  --------  --------
  0O   1s        -0.145090  0.000000 -0.000000 -0.007123  0.068355  0.000000
  0O   2s        -0.686654  0.000000  0.000003 -0.104542  0.075354  0.000008
  0O   3s        -0.713642  0.000004 -0.000022  0.351114  1.941152 -0.000011
  0O   1pz        0.024274  0.009651  0.000001  0.001237 -0.015248  0.394756
  0O   1px        0.311068  0.016267  0.000003  0.015860 -0.195190 -0.173146
  0O   1py        0.485282 -0.010911  0.000002  0.024742 -0.304530  0.091202
  0O   2pz        0.009370 -0.132935 -0.000017 -0.019268 -0.040943  0.978992
  0O   2px        0.119842 -0.223960 -0.000029 -0.246641 -0.524094 -0.429398
  0O   2py        0.186982  0.150207  0.000037 -0.384792 -0.817655  0.226192
  0O   1dz2       0.107153  0.033243 -0.718017 -0.674877  0.443180 -0.087061
  0O   1dxz      -0.188874  0.276978 -0.516542  0.244732 -0.741067 -0.621059
  0O   1dyz       0.119631  0.360078  0.372697 -0.057619  0.465280 -1.014983
  0O   1dx2y2    -0.057143  0.843515  0.198260 -0.346761 -0.206346  0.513901
  0O   1dxy       0.146915  0.366714 -0.366771  0.730526  0.537334  0.291508
  1H   1s         0.385105  0.000002  0.000009 -0.203831 -1.133635 -1.006265
  1H   2s         0.213243 -0.000002  0.000002 -0.031997 -0.242916 -0.276994
  1H   1pz       -0.600779  0.181604  0.165878  0.298728  0.545853  0.520175
  1H   1px        0.554966  0.305961  0.279476  0.065822 -0.502061 -0.524888
  1H   1py        0.295759 -0.205207 -0.187448  0.362504 -0.265485 -0.322250
  2H   1s         0.385087 -0.000006  0.000014 -0.203833 -1.133602  1.006270
  2H   2s         0.213212  0.000000  0.000003 -0.031986 -0.242902  0.276996
  2H   1pz        0.644748  0.181657 -0.165818 -0.268986 -0.585535  0.565026
  2H   1px        0.008645  0.306053 -0.279383  0.314826 -0.005813  0.048913
  2H   1py        0.583492 -0.205269  0.187374  0.231359 -0.526866  0.572976

MULLIKEN ATOMIC CHARGES
-----------------------
   0 O :   -0.273984
   1 H :    0.136992
   2 H :    0.136992
Sum of atomic charges:   -0.0000000

LOEWDIN ATOMIC CHARGES
----------------------
   0 O :   -0.146420
   1 H :    0.073209
   2 H :    0.073211

  Mayer bond orders larger than 0.100000
B(  0-O ,  1-H ) :   1.0111 B(  0-O ,  2-H ) :   1.0111

Dispersion correction           -0.000962715
FINAL SINGLE POINT ENERGY       -76.332757384620

DIPOLE MOMENT
-------------
                                X             Y             Z
Electronic contribution:      0.13820       0.21561       0.01082
Nuclear contribution   :     -0.55183      -0.86095      -0.04313
                        -----------------------------------------
Total Dipole Moment    :     -0.41363      -0.64534      -0.03231
                        -----------------------------------------
Magnitude (a.u.)       :      0.76720
Magnitude (Debye)      :      1.95006

Dispersion correction in the Hessian             ...
Dispersion correction Hessian from Numerical Differentiation:

VIBRATIONAL FREQUENCIES
-----------------------

Scaling factor for frequencies =  1.000000000  (already applied!)

   0:         0.00 cm**-1
   1:         0.00 cm**-1
   2:         0.00 cm**-1
   3:         0.00 cm**-1
   4:         0.00 cm**-1
   5:         0.00 cm**-1
   6:      1619.07 cm**-1
   7:      3671.68 cm**-1
   8:      3769.05 cm**-1

IR SPECTRUM
-----------

 Mode    freq (cm**-1)   T**2         TX         TY         TZ
-------------------------------------------------------------------
   6:      1619.07   45.410148  ( -3.633233  -5.668270  -0.283695)
   7:      3671.68    1.610303  (  0.683539   1.067728   0.055082)
   8:      3769.05   16.473512  (  1.594821  -0.840248  -3.636487)

--------------------------
THERMOCHEMISTRY AT 298.15K
--------------------------

Temperature         ... 298.15 K
Pressure            ... 1.00 atm
Total Mass          ... 18.02 AMU

Throughout the following assumptions are being made:
  (1) The electronic state is orbitally nondegenerate
  (2) There are no thermally accessible electronically excited states
  (3) Hindered rotations indicated by low frequency modes are not
      treated as such but are treated as vibrations and this may
      cause some error
  (4) All equations used are the standard statistical mechanics
      equations for an ideal gas
  (5) All vibrations are strictly harmonic

freq.    1619.07  E(vib)   ...       0.00
freq.    3671.68  E(vib)   ...       0.00
freq.    3769.05  E(vib)   ...       0.00

------------
INNER ENERGY
------------

The inner energy is: U= E(el) + E(ZPE) + E(vib) + E(rot) + E(trans)
    E(el)   - is the total energy from the electronic structure calculation
              = E(kin-el) + E(nuc-el) + E(el-el) + E(nuc-nuc)
    E(ZPE)  - the the zero temperature vibrational energy from the frequency calculation
    E(vib)  - the the finite temperature correction to E(ZPE) due to population
              of excited vibrational states
    E(rot)  - is the rotational thermal energy
    E(trans)- is the translational thermal energy

Summary of contributions to the inner energy U:
Electronic energy                ...    -76.33275738 Eh
Zero point energy                ...      0.02063975 Eh      12.95 kcal/mol
Thermal vibrational correction   ...      0.00000299 Eh       0.00 kcal/mol
Thermal rotational correction    ...      0.00141627 Eh       0.89 kcal/mol
Thermal translational correction ...      0.00141627 Eh       0.89 kcal/mol
-----------------------------------------------------------------------
Total thermal energy                    -76.30928210 Eh

Summary of corrections to the electronic energy:
(perhaps to be used in another calculation)
Total thermal correction                  0.00283553 Eh       1.78 kcal/mol
Non-thermal (ZPE) correction              0.02063975 Eh      12.95 kcal/mol
-----------------------------------------------------------------------
Total correction                          0.02347528 Eh      14.73 kcal/mol

--------
ENTHALPY
--------

The enthalpy is H = U + kB*T
                kB is Boltzmann's constant
Total free energy                 ...    -76.30928210 Eh
Thermal Enthalpy correction       ...      0.00094421 Eh       0.59 kcal/mol
-----------------------------------------------------------------------
Total Enthalpy                    ...    -76.30833789 Eh

Note: Rotational entropy computed according to Herzberg
Infrared and Raman Spectra, Chapter V,1, Van Nostrand Reinhold, 1945
Point Group:  Cs, Symmetry Number:   1
Rotational constants in cm-1:    24.907617    14.554902     9.186639

Vibrational entropy computed according to the QRRHO of S. Grimme
Chem.Eur.J. 2012 18 9955

-------
ENTROPY
-------

The entropy contributions are T*S = T*(S(el)+S(vib)+S(rot)+S(trans))
     S(el)   - electronic entropy
     S(vib)  - vibrational entropy
     S(rot)  - rotational entropy
     S(trans)- translational entropy
The entropies will be listed as mutliplied by the temperature to get
units of energy

Electronic entropy                ...      0.00000000 Eh      0.00 kcal/mol
Vibrational entropy               ...      0.00000337 Eh      0.00 kcal/mol
Rotational entropy                ...      0.00568175 Eh      3.57 kcal/mol
Translational entropy             ...      0.01644380 Eh     10.32 kcal/mol
-----------------------------------------------------------------------
Final entropy term                ...      0.02212892 Eh     13.89 kcal/mol

In case the symmetry of your molecule has not been determined correctly
or in case you have a reason to use a different symmetry number we print
out the resulting rotational entropy values for sn=1,12 :
 --------------------------------------------------------
|  sn= 1 | S(rot)=       0.00568175 Eh      3.57 kcal/mol|
|  sn= 2 | S(rot)=       0.00502730 Eh      3.15 kcal/mol|
|  sn= 3 | S(rot)=       0.00464447 Eh      2.91 kcal/mol|
|  sn= 4 | S(rot)=       0.00437284 Eh      2.74 kcal/mol|
|  sn= 5 | S(rot)=       0.00416215 Eh      2.61 kcal/mol|
|  sn= 6 | S(rot)=       0.00399001 Eh      2.50 kcal/mol|
|  sn= 7 | S(rot)=       0.00384446 Eh      2.41 kcal/mol|
|  sn= 8 | S(rot)=       0.00371839 Eh      2.33 kcal/mol|
|  sn= 9 | S(rot)=       0.00360718 Eh      2.26 kcal/mol|
|  sn=10 | S(rot)=       0.00350770 Eh      2.20 kcal/mol|
|  sn=11 | S(rot)=       0.00341771 Eh      2.14 kcal/mol|
|  sn=12 | S(rot)=       0.00333555 Eh      2.09 kcal/mol|
 --------------------------------------------------------

-------------------
GIBBS FREE ENERGY
-------------------

The Gibbs free energy is G = H - T*S

Total enthalpy                    ...    -76.30833789 Eh
Total entropy correction          ...     -0.02212892 Eh    -13.89 kcal/mol
-----------------------------------------------------------------------
Final Gibbs free energy         ...    -76.33046682 Eh

For completeness - the Gibbs free energy minus the electronic energy
G-E(el)                           ...      0.00229057 Eh      1.44 kcal/mol

                             ****ORCA TERMINATED NORMALLY****
TOTAL RUN TIME: 0 days 0 hours 0 minutes 19 seconds 967 msec
